Generated by pymatgen.io.lammps.data.LammpsData

167  atoms

  2  atom types

0.000000 28.553120  xlo xhi
0.000000 28.553120  ylo yhi
0.000000 28.553120  zlo zhi
0.000000 0.000000 0.000000  xy xz yz

Masses

1  55.847000
2  30.973762

Atoms

1     1  1 28.544855 28.544855 28.616595
2     1  1  0.004486  0.004486  2.861906
3     1  1  0.000214  0.000214  5.710907
8     1  1  0.000673  0.000673 19.985046
9     1  1  0.003798  0.003798 22.796614
10    1  1 27.840765 27.840765 26.410001
11    1  1  0.011912  2.854704  0.002677
12    1  1 28.551899  2.853831  2.853573
19    1  1 28.546651  2.842844 22.854947
20    1  1  0.003828  2.901179 25.693951
21    1  1  0.001438  5.710950  0.000424
30    1  1  0.000691  5.712773 25.697112
71    1  1 -0.000103 19.987144  0.000044
80    1  1  0.000190 19.986901 25.697576
81    1  1  0.001753 22.845731 -0.000323
82    1  1 28.552761 22.848083  2.849705
89    1  1 28.551898 22.844202 22.843941
90    1  1  0.004451 22.835869 25.693252
91    1  1 28.497452 25.784901 28.465921
92    1  1  0.001782 25.698069  2.852048
93    1  1 -0.000083 25.697738  5.710674
98    1  1  0.001418 25.697370 19.986857
99    1  1  0.011880 25.695063 22.843073
100   1  1 28.544781 25.634207 25.705958
101   1  1  2.854704  0.011912  0.002677
102   1  1  2.853831 28.551899  2.853573
109   1  1  2.842844 28.546651 22.854947
110   1  1  2.901179  0.003828 25.693951
111   1  1  2.834771  2.834771 28.532643
112   1  1  2.854239  2.854239  2.852620
119   1  1  2.840685  2.840685 22.857114
120   1  1  2.842848  2.842848 25.704259
181   1  1  2.854448 22.844435 28.555913
182   1  1  2.846239 22.851322  2.846477
189   1  1  2.854245 22.845177 22.843557
190   1  1  2.853832 22.844219 25.699010
191   1  1  2.858442 25.697672  0.000103
192   1  1  2.854453 25.694994  2.853360
199   1  1  2.834769 25.718272 22.863025
200   1  1  2.854700 25.695097 25.685863
201   1  1  5.710950  0.001438  0.000424
210   1  1  5.712773  0.000691 25.697112
291   1  1  5.712611 25.696516  0.001287
300   1  1  5.710953 25.697378 25.696364
701   1  1 19.987144 -0.000103  0.000044
710   1  1 19.986901  0.000190 25.697576
791   1  1 19.987341 25.697545  0.000220
800   1  1 19.987198 25.697638 25.697784
801   1  1 22.845731  0.001753 -0.000323
802   1  1 22.848083 28.552761  2.849705
809   1  1 22.844202 28.551898 22.843941
810   1  1 22.835869  0.004451 25.693252
811   1  1 22.844435  2.854448 28.555913
812   1  1 22.851322  2.846239  2.846477
819   1  1 22.845177  2.854245 22.843557
820   1  1 22.844219  2.853832 25.699010
881   1  1 22.848917 22.848917 28.549920
882   1  1 22.849799 22.849799  2.848002
890   1  1 22.847921 22.847921 25.697989
891   1  1 22.843541 25.695260  0.002438
892   1  1 22.848931 25.700979  2.848861
899   1  1 22.844277 25.694866 22.843164
900   1  1 22.845737 25.697870 25.695788
901   1  1 25.784901 28.497452 28.465921
902   1  1 25.698069  0.001782  2.852048
903   1  1 25.697738 -0.000083  5.710674
908   1  1 25.697370  0.001418 19.986857
909   1  1 25.695063  0.011880 22.843073
910   1  1 25.634207 28.544781 25.705958
911   1  1 25.697672  2.858442  0.000103
912   1  1 25.694994  2.854453  2.853360
919   1  1 25.718272  2.834769 22.863025
920   1  1 25.695097  2.854700 25.685863
921   1  1 25.696516  5.712611  0.001287
930   1  1 25.697378  5.710953 25.696364
971   1  1 25.697545 19.987341  0.000220
980   1  1 25.697638 19.987198 25.697784
981   1  1 25.695260 22.843541  0.002438
982   1  1 25.700979 22.848931  2.848861
989   1  1 25.694866 22.844277 22.843164
990   1  1 25.697870 22.845737 25.695788
991   1  1 25.741785 25.741785 28.508982
992   1  1 25.695296 25.695296  2.854234
993   1  1 25.697557 25.697557  5.710471
998   1  1 25.696437 25.696437 19.985243
999   1  1 25.697479 25.697479 22.839337
1000  1  1 25.784636 25.784636 25.753091
1001  1  1  1.428929  1.428929  1.429007
1002  1  1  1.428825  1.428825  4.283794
1008  1  1  1.431467  1.431467 21.415031
1009  1  1  1.386055  1.386055 24.311721
1010  1  1  1.343377  1.343377 27.068872
1011  1  1  1.430965  4.282470  1.427249
1019  1  1  1.431477  4.282773 24.266323
1020  1  1  1.429244  4.280849 27.127186
1071  1  1  1.425763 21.417058  1.426307
1079  1  1  1.428824 21.414000 24.268970
1080  1  1  1.427760 21.415178 27.126640
1081  1  1  1.405117 24.295101  1.402670
1082  1  1  1.425772 24.271483  4.280744
1088  1  1  1.430966 24.270548 21.415324
1089  1  1  1.428924 24.268760 24.268838
1090  1  1  1.431076 24.272496 27.136015
1091  1  1  1.431088 27.114853  1.425270
1092  1  1  1.427774 27.124261  4.282621
1098  1  1  1.429230 27.123719 21.416951
1099  1  1  1.343366 27.181998 24.354393
1100  1  1  1.493424 27.135388 27.115475
1101  1  1  4.282470  1.430965  1.427249
1109  1  1  4.282773  1.431477 24.266323
1110  1  1  4.280849  1.429244 27.127186
1181  1  1  4.281974 24.271363  1.426436
1189  1  1  4.282474 24.270549 24.266832
1190  1  1  4.282527 24.271534 27.124055
1191  1  1  4.282526 27.126858  1.426262
1199  1  1  4.280850 27.123730 24.268553
1200  1  1  4.290755 27.121617 27.129291
1701  1  1 21.417058  1.425763  1.426307
1709  1  1 21.414000  1.428824 24.268970
1710  1  1 21.415178  1.427760 27.126640
1781  1  1 21.416656 24.270913  1.426879
1789  1  1 21.417220 24.271164 24.271702
1790  1  1 21.417096 24.271761 27.124722
1791  1  1 21.417093 27.126124  1.425978
1799  1  1 21.415180 27.124211 24.269980
1800  1  1 21.412518 27.125128 27.125638
1801  1  1 24.295101  1.405117  1.402670
1802  1  1 24.271483  1.425772  4.280744
1808  1  1 24.270548  1.430966 21.415324
1809  1  1 24.268760  1.428924 24.268838
1810  1  1 24.272496  1.431076 27.136015
1811  1  1 24.271363  4.281974  1.426436
1819  1  1 24.270549  4.282474 24.266832
1820  1  1 24.271534  4.282527 27.124055
1871  1  1 24.270913 21.416656  1.426879
1879  1  1 24.271164 21.417220 24.271702
1880  1  1 24.271761 21.417096 27.124722
1881  1  1 24.287829 24.287829  1.409930
1882  1  1 24.270914 24.270914  4.281142
1888  1  1 24.271102 24.271102 21.415931
1889  1  1 24.294102 24.294102 24.291641
1890  1  1 24.285638 24.285638 27.117546
1891  1  1 24.285738 27.133182  1.412015
1892  1  1 24.271802 27.126137  4.280708
1898  1  1 24.271501 27.126818 21.415268
1899  1  1 24.272381 27.114726 24.266562
1900  1  1 24.225943 27.123052 27.127642
1901  1  1 27.114853  1.431088  1.425270
1902  1  1 27.124261  1.427774  4.282621
1908  1  1 27.123719  1.429230 21.416951
1909  1  1 27.181998  1.343366 24.354393
1910  1  1 27.135388  1.493424 27.115475
1911  1  1 27.126858  4.282526  1.426262
1919  1  1 27.123730  4.280850 24.268553
1920  1  1 27.121617  4.290755 27.129291
1971  1  1 27.126124 21.417093  1.425978
1979  1  1 27.124211 21.415180 24.269980
1980  1  1 27.125128 21.412518 27.125638
1981  1  1 27.133182 24.285738  1.412015
1982  1  1 27.126137 24.271802  4.280708
1988  1  1 27.126818 24.271501 21.415268
1989  1  1 27.114726 24.272381 24.266562
1990  1  1 27.123052 24.225943 27.127642
1991  1  1 27.123134 27.123134  1.471769
1992  1  1 27.125199 27.125199  4.285301
1998  1  1 27.121554 27.121554 21.407064
1999  1  1 27.135289 27.135289 24.204271

