Generated by pymatgen.io.lammps.data.LammpsData

167  atoms

  2  atom types

0.000000 28.553120  xlo xhi
0.000000 28.553120  ylo yhi
0.000000 28.553120  zlo zhi
0.000000 0.000000 0.000000  xy xz yz

Masses

1  55.847000
2  30.973762

Atoms

2     3  1  0.003896  0.003896  2.859142
11    3  1  0.010813  2.859079  0.005008
101   3  1  2.859079  0.010813  0.005008
1001  3  1  1.421417  1.421417  1.421929
201   3  1  5.711817  0.001547  0.000940
1101  3  1  4.283140  1.430510  1.427779
701   3  1 19.987495 -0.000139 -0.000159
801   3  1 22.848389  0.001799 -0.002239
812   3  1 22.851507  2.845318  2.846292
1701  3  1 21.417652  1.425195  1.425745
1801  3  1 24.296260  1.403434  1.401480
12    3  1 28.552114  2.853071  2.852903
902   3  1 25.699934  0.001750  2.849369
911   3  1 25.692123  2.863398  0.005555
912   3  1 25.695685  2.853430  2.852667
1901  3  1 27.118828  1.429087  1.422256
21    3  1  0.001547  5.711817  0.000940
1011  3  1  1.430510  4.283140  1.427779
1811  3  1 24.269370  4.283098  1.428423
921   3  1 25.695254  5.713800  0.002513
1911  3  1 27.126350  4.283841  1.427672
71    3  1 -0.000139 19.987495 -0.000159
971   3  1 25.697835 19.987866 -0.000036
81    3  1  0.001799 22.848389 -0.002239
182   3  1  2.845318 22.851507  2.846292
1071  3  1  1.425195 21.417652  1.425745
1081  3  1  1.403434 24.296260  1.401480
1181  3  1  4.283098 24.269370  1.428423
882   3  1 22.850971 22.850971  2.846820
1781  3  1 21.417936 24.271934  1.425857
1871  3  1 24.271934 21.417936  1.425857
1881  3  1 24.291106 24.291106  1.406642
82    3  1 28.552130 22.848823  2.848960
981   3  1 25.697855 22.846866 -0.000100
982   3  1 25.701933 22.850439  2.847339
1971  3  1 27.126361 21.418205  1.425024
1981  3  1 27.135024 24.289692  1.408033
102   3  1  2.853071 28.552114  2.852903
92    3  1  0.001750 25.699934  2.849369
191   3  1  2.863398 25.692123  0.005555
192   3  1  2.853430 25.695685  2.852667
1091  3  1  1.429087 27.118828  1.422256
291   3  1  5.713800 25.695254  0.002513
1191  3  1  4.283841 27.126350  1.427672
791   3  1 19.987866 25.697835 -0.000036
802   3  1 22.848823 28.552130  2.848960
891   3  1 22.846866 25.697855 -0.000100
892   3  1 22.850439 25.701933  2.847339
1791  3  1 21.418205 27.126361  1.425024
1891  3  1 24.289692 27.135024  1.408033
992   3  1 25.697794 25.697794  2.850920
1991  3  1 27.127565 27.127565  1.464833
3     3  1  0.000000  0.000000  5.710876
1002  3  1  1.427665  1.427665  4.283595
1802  3  1 24.272041  1.425193  4.280143
903   3  1 25.697913 -0.000161  5.710322
1902  3  1 27.124567  1.427386  4.282038
1082  3  1  1.425193 24.272041  4.280143
1882  3  1 24.271915 24.271915  4.279868
1982  3  1 27.126343 24.272739  4.279592
93    3  1 -0.000161 25.697913  5.710322
1092  3  1  1.427386 27.124567  4.282038
1892  3  1 24.272739 27.126342  4.279592
993   3  1 25.697803 25.697803  5.709959
1992  3  1 27.125640 27.125640  4.284338
8     3  1  0.000498  0.000498 19.985120
908   3  1 25.696763  0.001648 19.986042
98    3  1  0.001648 25.696763 19.986042
998   3  1 25.695277 25.695277 19.984003
9     3  1 -0.005039 -0.005039 22.799614
119   3  1  2.830029  2.830029 22.867771
1008  3  1  1.427599  1.427599 21.421788
1009  3  1  1.325085  1.325086 24.372666
1109  3  1  4.276015  1.427607 24.270189
819   3  1 22.846351  2.852282 22.845517
1709  3  1 21.414536  1.428205 24.269592
1808  3  1 24.269691  1.430853 21.414777
1809  3  1 24.274584  1.422724 24.275044
19    3  1 28.554944  2.839391 22.858404
909   3  1 25.692484  0.011087 22.838636
919   3  1 25.712446  2.839890 22.857895
1908  3  1 27.123769  1.430526 21.414851
1909  3  1 27.162304  1.372148 24.325589
1019  3  1  1.427607  4.276015 24.270189
1819  3  1 24.269685  4.283020 24.266939
1919  3  1 27.123742  4.282956 24.267242
189   3  1  2.852282 22.846351 22.845516
1079  3  1  1.428205 21.414535 24.269592
1088  3  1  1.430853 24.269691 21.414777
1089  3  1  1.422724 24.274584 24.275044
1189  3  1  4.283021 24.269685 24.266938
889   3  1 22.851508 22.851508 22.852486
1789  3  1 21.417651 24.272051 24.272601
1879  3  1 24.272051 21.417651 24.272601
1888  3  1 24.269356 24.269356 21.414677
1889  3  1 24.296302 24.296302 24.294349
89    3  1 28.552340 22.844706 22.844469
989   3  1 25.695682 22.845093 22.844322
1979  3  1 27.124655 21.415775 24.270327
1988  3  1 27.126405 24.270065 21.413932
1989  3  1 27.118983 24.275342 24.268470
109   3  1  2.839391 28.554944 22.858404
99    3  1  0.011087 25.692484 22.838636
199   3  1  2.839890 25.712446 22.857895
1098  3  1  1.430526 27.123769 21.414851
1099  3  1  1.372148 27.162304 24.325589
1199  3  1  4.282956 27.123742 24.267242
809   3  1 22.844706 28.552340 22.844469
899   3  1 22.845093 25.695682 22.844322
1799  3  1 21.415775 27.124655 24.270327
1898  3  1 24.270066 27.126405 21.413932
1899  3  1 24.275342 27.118983 24.268470
999   3  1 25.692127 25.692127 22.834311
1998  3  1 27.119090 27.119090 21.402941
1999  3  1 27.123089 27.123089 24.185390
111   3  1  2.839645  2.839645 28.538289
20    3  1 -0.005089  2.898231 25.702753
110   3  1  2.898231 -0.005089 25.702753
120   3  1  2.839352  2.839352 25.695973
1010  3  1  1.371915  1.371915 27.088320
210   3  1  5.712691  0.000487 25.697280
1110  3  1  4.282930  1.430481 27.127101
710   3  1 19.987051  0.000174 25.697626
811   3  1 22.845094  2.853463 28.555217
810   3  1 22.838621  0.004192 25.693567
820   3  1 22.844699  2.853325 25.698562
1710  3  1 21.415775  1.427463 27.126252
1810  3  1 24.275309  1.429275 27.131856
920   3  1 25.692467  2.859128 25.686662
1910  3  1 27.123034  1.512074 27.127545
30    3  1  0.000487  5.712691 25.697280
1020  3  1  1.430481  4.282930 27.127101
1820  3  1 24.270056  4.283856 27.124496
930   3  1 25.696740  5.711777 25.696134
1920  3  1 27.119005  4.294870 27.131740
80    3  1  0.000174 19.987051 25.697626
980   3  1 25.697958 19.987492 25.697938
181   3  1  2.853463 22.845094 28.555217
90    3  1  0.004192 22.838621 25.693567
190   3  1  2.853325 22.844699 25.698562
1080  3  1  1.427463 21.415775 27.126252
1090  3  1  1.429276 24.275309 27.131856
1190  3  1  4.283856 24.270056 27.124496
881   3  1 22.850455 22.850455 28.548952
890   3  1 22.848829 22.848829 25.698770
1790  3  1 21.418208 24.272768 27.124541
1880  3  1 24.272768 21.418208 27.124541
1890  3  1 24.289738 24.289738 27.115793
990   3  1 25.700007 22.848411 25.695959
1980  3  1 27.125750 21.413484 27.125148
1990  3  1 27.127727 24.232890 27.123102
200   3  1  2.859128 25.692467 25.686662
1100  3  1  1.512074 27.123034 27.127545
300   3  1  5.711777 25.696740 25.696134
1200  3  1  4.294870 27.119005 27.131740
800   3  1 19.987492 25.697958 25.697938
900   3  1 22.848411 25.700007 25.695959
1800  3  1 21.413484 27.125750 27.125148
1900  3  1 24.232890 27.127727 27.123102
1     3  1 28.533511 28.533511 28.575476
901   3  1 25.794202 28.499063 28.456480
91    3  1 28.499063 25.794203 28.456479
991   3  1 25.749957 25.749957 28.500827
10    3  1 28.047173 28.047172 26.203113
910   3  1 25.674718 28.534160 25.716632
100   3  1 28.534160 25.674717 25.716632
1000  3  1 25.794449 25.794448 25.751765

