Generated by pymatgen.io.lammps.data.LammpsData

1999  atoms

   2  atom types

0.000000 28.553120  xlo xhi
0.000000 28.553120  ylo yhi
0.000000 28.553120  zlo zhi
0.000000 0.000000 0.000000  xy xz yz

Masses

1  55.847000
2  30.973762

Atoms

2     0  1  0.001611  0.001611  2.855120
11    0  1  0.001611  2.855267  0.001464
101   0  1  2.855267  0.001611  0.001464
112   0  1  2.848888  2.848888  2.848741
1001  0  1  1.411914  1.411914  1.411767
212   0  1  5.709435  2.854368  2.854221
1101  0  1  4.281792  1.426851  1.426704
1201  0  1  7.138130  1.427537  1.427390
312   0  1  8.565670  2.855128  2.854981
412   0  1 11.421239  2.855297  2.855150
1301  0  1  9.993606  1.427665  1.427518
402   0  1 11.421274  0.000044  2.855188
512   0  1 14.276698  2.855297  2.855150
1401  0  1 12.848968  1.427700  1.427553
1501  0  1 15.704330  1.427665  1.427518
502   0  1 14.276662  0.000044  2.855188
612   0  1 17.132267  2.855127  2.854981
712   0  1 19.988502  2.854368  2.854221
1601  0  1 18.559806  1.427537  1.427390
812   0  1 22.849048  2.848888  2.848741
1701  0  1 21.416145  1.426851  1.426704
1801  0  1 24.286023  1.411914  1.411767
801   0  1 22.842670  0.001611  0.001464
12    0  1 28.552763  2.851734  2.851587
902   0  1 25.696326  0.001611  2.855120
911   0  1 25.696326  2.855267  0.001464
912   0  1 25.698294  2.851734  2.851587
1901  0  1 27.125528  1.421168  1.421021
122   0  1  2.854368  5.709435  2.854221
1011  0  1  1.426851  4.281792  1.426704
1021  0  1  1.427537  7.138130  1.427390
222   0  1  5.709411  5.709411  2.854583
1111  0  1  4.280916  4.280916  1.426866
1121  0  1  4.282389  7.137597  1.427269
1211  0  1  7.137597  4.282389  1.427269
1221  0  1  7.137583  7.137583  1.427348
322   0  1  8.565459  5.710207  2.854952
422   0  1 11.421176  5.710516  2.855114
1311  0  1  9.993443  4.282853  1.427474
1321  0  1  9.993331  7.138029  1.427466
522   0  1 14.276761  5.710516  2.855114
1411  0  1 12.848968  4.282955  1.427524
1421  0  1 12.848968  7.138181  1.427505
1511  0  1 15.704493  4.282853  1.427474
1521  0  1 15.704606  7.138029  1.427466
622   0  1 17.132478  5.710207  2.854952
722   0  1 19.988526  5.709411  2.854583
1611  0  1 18.560339  4.282389  1.427269
1621  0  1 18.560354  7.137583  1.427348
822   0  1 22.843569  5.709435  2.854221
1711  0  1 21.417021  4.280916  1.426866
1721  0  1 21.415548  7.137597  1.427269
1811  0  1 24.271085  4.281792  1.426704
1821  0  1 24.270400  7.138130  1.427390
22    0  1 28.552925  5.709773  2.854471
922   0  1 25.698132  5.709773  2.854471
1911  0  1 27.125528  4.282116  1.426760
1921  0  1 27.125528  7.138250  1.427439
132   0  1  2.855128  8.565670  2.854981
142   0  1  2.855297 11.421239  2.855150
1031  0  1  1.427665  9.993606  1.427518
42    0  1  0.000044 11.421274  2.855188
232   0  1  5.710207  8.565459  2.854952
242   0  1  5.710516 11.421176  2.855114
1131  0  1  4.282853  9.993443  1.427474
1231  0  1  7.138029  9.993331  1.427466
332   0  1  8.565540  8.565540  2.855028
342   0  1  8.565775 11.421158  2.855109
432   0  1 11.421158  8.565775  2.855109
442   0  1 11.421200 11.421200  2.855119
1331  0  1  9.993401  9.993401  1.427486
532   0  1 14.276779  8.565775  2.855109
542   0  1 14.276736 11.421200  2.855119
1431  0  1 12.848968  9.993492  1.427500
1531  0  1 15.704535  9.993401  1.427486
632   0  1 17.132396  8.565540  2.855029
642   0  1 17.132161 11.421158  2.855109
732   0  1 19.987730  8.565459  2.854952
742   0  1 19.987421 11.421176  2.855114
1631  0  1 18.559908  9.993331  1.427466
832   0  1 22.842809  8.565670  2.854981
842   0  1 22.842640 11.421239  2.855150
1731  0  1 21.415084  9.993443  1.427474
1831  0  1 24.270271  9.993606  1.427518
32    0  1 28.553113  8.565792  2.855054
932   0  1 25.697944  8.565792  2.855054
942   0  1 25.697893 11.421274  2.855188
1931  0  1 27.125528  9.993657  1.427544
152   0  1  2.855297 14.276698  2.855150
1041  0  1  1.427700 12.848968  1.427553
1051  0  1  1.427665 15.704330  1.427518
52    0  1  0.000044 14.276662  2.855188
252   0  1  5.710516 14.276761  2.855114
1141  0  1  4.282955 12.848968  1.427524
1151  0  1  4.282853 15.704493  1.427474
1241  0  1  7.138181 12.848968  1.427505
1251  0  1  7.138029 15.704606  1.427466
352   0  1  8.565775 14.276779  2.855109
452   0  1 11.421200 14.276736  2.855119
1341  0  1  9.993492 12.848968  1.427500
1351  0  1  9.993401 15.704535  1.427486
552   0  1 14.276736 14.276736  2.855119
1441  0  1 12.848968 12.848968  1.427501
1451  0  1 12.848968 15.704445  1.427500
1541  0  1 15.704445 12.848968  1.427500
1551  0  1 15.704535 15.704535  1.427486
652   0  1 17.132161 14.276779  2.855109
752   0  1 19.987421 14.276761  2.855114
1641  0  1 18.559756 12.848968  1.427505
1651  0  1 18.559908 15.704606  1.427466
852   0  1 22.842640 14.276698  2.855150
1741  0  1 21.414982 12.848968  1.427524
1751  0  1 21.415084 15.704493  1.427474
1841  0  1 24.270237 12.848968  1.427553
1851  0  1 24.270271 15.704330  1.427518
952   0  1 25.697893 14.276662  2.855188
1941  0  1 27.125528 12.848968  1.427569
1951  0  1 27.125528 15.704280  1.427544
162   0  1  2.855127 17.132267  2.854981
172   0  1  2.854368 19.988502  2.854221
1061  0  1  1.427537 18.559806  1.427390
262   0  1  5.710207 17.132478  2.854952
272   0  1  5.709411 19.988526  2.854583
1161  0  1  4.282389 18.560339  1.427269
1261  0  1  7.137583 18.560354  1.427348
362   0  1  8.565540 17.132396  2.855029
372   0  1  8.565459 19.987730  2.854952
462   0  1 11.421158 17.132161  2.855109
472   0  1 11.421176 19.987421  2.855114
1361  0  1  9.993331 18.559908  1.427466
562   0  1 14.276779 17.132161  2.855109
572   0  1 14.276761 19.987421  2.855114
1461  0  1 12.848968 18.559756  1.427505
1561  0  1 15.704606 18.559908  1.427466
662   0  1 17.132396 17.132396  2.855029
672   0  1 17.132478 19.987730  2.854952
762   0  1 19.987730 17.132478  2.854952
772   0  1 19.988526 19.988526  2.854583
1661  0  1 18.560354 18.560354  1.427348
862   0  1 22.842809 17.132267  2.854981
872   0  1 22.843569 19.988502  2.854221
1761  0  1 21.415548 18.560340  1.427269
1861  0  1 24.270400 18.559806  1.427390
62    0  1 28.553113 17.132145  2.855054
72    0  1 28.552925 19.988164  2.854471
962   0  1 25.697944 17.132145  2.855054
972   0  1 25.698132 19.988164  2.854471
1961  0  1 27.125528 18.559686  1.427439
182   0  1  2.848888 22.849048  2.848741
1071  0  1  1.426851 21.416145  1.426704
1081  0  1  1.411914 24.286023  1.411767
81    0  1  0.001611 22.842670  0.001464
282   0  1  5.709435 22.843569  2.854221
1171  0  1  4.280916 21.417021  1.426866
1181  0  1  4.281792 24.271085  1.426704
1271  0  1  7.137597 21.415548  1.427269
1281  0  1  7.138130 24.270400  1.427390
382   0  1  8.565670 22.842809  2.854981
482   0  1 11.421239 22.842640  2.855150
1371  0  1  9.993443 21.415084  1.427474
1381  0  1  9.993606 24.270271  1.427518
582   0  1 14.276698 22.842640  2.855150
1471  0  1 12.848968 21.414982  1.427524
1481  0  1 12.848968 24.270237  1.427553
1571  0  1 15.704493 21.415084  1.427474
1581  0  1 15.704330 24.270271  1.427518
682   0  1 17.132267 22.842809  2.854981
782   0  1 19.988502 22.843569  2.854221
1671  0  1 18.560340 21.415548  1.427269
1681  0  1 18.559806 24.270400  1.427390
882   0  1 22.849048 22.849048  2.848741
1771  0  1 21.417021 21.417021  1.426866
1781  0  1 21.416145 24.271085  1.426704
1871  0  1 24.271085 21.416145  1.426704
1881  0  1 24.286023 24.286023  1.411767
82    0  1 28.552763 22.846203  2.851587
982   0  1 25.698294 22.846203  2.851587
1971  0  1 27.125528 21.415821  1.426760
1981  0  1 27.125528 24.276769  1.421021
981   0  1 25.696326 22.842670  0.001464
102   0  1  2.851734 28.552763  2.851587
92    0  1  0.001611 25.696326  2.855120
191   0  1  2.855267 25.696326  0.001464
192   0  1  2.851734 25.698294  2.851587
1091  0  1  1.421168 27.125528  1.421021
202   0  1  5.709773 28.552925  2.854471
292   0  1  5.709773 25.698132  2.854471
1191  0  1  4.282116 27.125528  1.426760
1291  0  1  7.138250 27.125528  1.427439
302   0  1  8.565792 28.553113  2.855054
392   0  1  8.565792 25.697944  2.855054
492   0  1 11.421274 25.697893  2.855188
1391  0  1  9.993657 27.125528  1.427544
592   0  1 14.276662 25.697893  2.855188
1491  0  1 12.848968 27.125528  1.427569
1591  0  1 15.704280 27.125528  1.427544
602   0  1 17.132145 28.553113  2.855054
702   0  1 19.988164 28.552925  2.854471
692   0  1 17.132145 25.697944  2.855054
792   0  1 19.988164 25.698132  2.854471
1691  0  1 18.559686 27.125528  1.427439
802   0  1 22.846203 28.552763  2.851587
892   0  1 22.846203 25.698294  2.851587
1791  0  1 21.415821 27.125528  1.426760
1891  0  1 24.276769 27.125528  1.421021
891   0  1 22.842670 25.696326  0.001464
992   0  1 25.696326 25.696326  2.855120
1991  0  1 27.125528 27.125528  1.466520
113   0  1  2.854368  2.854368  5.709288
1002  0  1  1.426851  1.426851  4.281645
1003  0  1  1.427537  1.427537  7.137983
3     0  1  0.000141  0.000141  5.710758
213   0  1  5.709411  2.854730  5.709264
1102  0  1  4.280916  1.427013  4.280769
1103  0  1  4.282389  1.427416  7.137450
1202  0  1  7.137597  1.427416  4.282242
1203  0  1  7.137583  1.427495  7.137436
313   0  1  8.565459  2.855099  5.710060
413   0  1 11.421176  2.855261  5.710369
1302  0  1  9.993443  1.427621  4.282706
1303  0  1  9.993331  1.427613  7.137882
403   0  1 11.421190  0.000030  5.710401
513   0  1 14.276761  2.855261  5.710369
1402  0  1 12.848968  1.427671  4.282808
1403  0  1 12.848968  1.427652  7.138034
1502  0  1 15.704493  1.427621  4.282706
1503  0  1 15.704606  1.427613  7.137882
503   0  1 14.276746  0.000030  5.710401
613   0  1 17.132478  2.855099  5.710060
713   0  1 19.988526  2.854730  5.709264
1602  0  1 18.560339  1.427416  4.282242
1603  0  1 18.560354  1.427495  7.137436
813   0  1 22.843569  2.854368  5.709288
1702  0  1 21.417021  1.427013  4.280769
1703  0  1 21.415548  1.427416  7.137450
1802  0  1 24.271085  1.426851  4.281645
1803  0  1 24.270400  1.427537  7.137983
13    0  1 28.552925  2.854618  5.709626
913   0  1 25.698132  2.854618  5.709626
1902  0  1 27.125528  1.426907  4.281969
1903  0  1 27.125528  1.427586  7.138103
903   0  1 25.697796  0.000141  5.710758
123   0  1  2.854730  5.709411  5.709264
1012  0  1  1.427013  4.280916  4.280769
1013  0  1  1.427416  4.282389  7.137450
1022  0  1  1.427416  7.137597  4.282242
1023  0  1  1.427495  7.137583  7.137436
223   0  1  5.709250  5.709250  5.709103
1112  0  1  4.280109  4.280109  4.279962
1113  0  1  4.282266  4.282266  7.137271
1122  0  1  4.282266  7.137418  4.282119
1123  0  1  4.282545  7.137568  7.137421
1212  0  1  7.137418  4.282266  4.282119
1213  0  1  7.137568  4.282545  7.137421
1222  0  1  7.137568  7.137568  4.282398
1223  0  1  7.137592  7.137592  7.137445
323   0  1  8.565398  5.710169  5.710022
423   0  1 11.421154  5.710480  5.710333
1312  0  1  9.993373  4.282799  4.282652
1313  0  1  9.993317  4.282801  7.137860
1322  0  1  9.993317  7.138007  4.282654
1323  0  1  9.993315  7.138004  7.137857
523   0  1 14.276782  5.710480  5.710333
1412  0  1 12.848968  4.282912  4.282765
1413  0  1 12.848968  4.282886  7.138007
1422  0  1 12.848968  7.138154  4.282739
1423  0  1 12.848968  7.138136  7.137989
1512  0  1 15.704564  4.282799  4.282652
1513  0  1 15.704620  4.282801  7.137860
1522  0  1 15.704620  7.138007  4.282654
1523  0  1 15.704622  7.138004  7.137857
623   0  1 17.132538  5.710169  5.710022
723   0  1 19.988686  5.709250  5.709103
1612  0  1 18.560519  4.282266  4.282119
1613  0  1 18.560368  4.282545  7.137421
1622  0  1 18.560368  7.137568  4.282398
1623  0  1 18.560345  7.137592  7.137445
823   0  1 22.843206  5.709411  5.709264
1712  0  1 21.417828  4.280109  4.279962
1713  0  1 21.415670  4.282266  7.137271
1722  0  1 21.415670  7.137418  4.282119
1723  0  1 21.415392  7.137568  7.137421
1812  0  1 24.270924  4.280916  4.280769
1813  0  1 24.270520  4.282389  7.137450
1822  0  1 24.270520  7.137597  4.282242
1823  0  1 24.270442  7.137583  7.137436
23    0  1 28.552985  5.709445  5.709298
923   0  1 25.698072  5.709445  5.709298
1912  0  1 27.125528  4.280929  4.280782
1913  0  1 27.125528  4.282439  7.137504
1922  0  1 27.125528  7.137651  4.282292
1923  0  1 27.125528  7.137592  7.137445
133   0  1  2.855099  8.565459  5.710060
143   0  1  2.855261 11.421176  5.710369
1032  0  1  1.427621  9.993443  4.282706
1033  0  1  1.427613  9.993331  7.137882
43    0  1  0.000030 11.421190  5.710401
233   0  1  5.710169  8.565398  5.710022
243   0  1  5.710480 11.421154  5.710333
1132  0  1  4.282799  9.993373  4.282652
1133  0  1  4.282801  9.993317  7.137860
1232  0  1  7.138007  9.993317  4.282654
1233  0  1  7.138004  9.993315  7.137857
333   0  1  8.565544  8.565544  5.710199
343   0  1  8.565764 11.421158  5.710342
433   0  1 11.421158  8.565764  5.710342
443   0  1 11.421202 11.421202  5.710370
1332  0  1  9.993401  9.993401  4.282708
1333  0  1  9.993411  9.993411  7.137954
533   0  1 14.276778  8.565764  5.710342
543   0  1 14.276735 11.421202  5.710370
1432  0  1 12.848968  9.993487  4.282741
1433  0  1 12.848968  9.993486  7.138007
1532  0  1 15.704536  9.993401  4.282708
1533  0  1 15.704526  9.993411  7.137954
633   0  1 17.132393  8.565544  5.710199
643   0  1 17.132172 11.421158  5.710342
733   0  1 19.987768  8.565398  5.710022
743   0  1 19.987457 11.421154  5.710333
1632  0  1 18.559930  9.993317  4.282654
1633  0  1 18.559932  9.993315  7.137857
833   0  1 22.842838  8.565459  5.710060
843   0  1 22.842675 11.421176  5.710369
1732  0  1 21.415138  9.993373  4.282652
1733  0  1 21.415136  9.993317  7.137860
1832  0  1 24.270316  9.993443  4.282706
1833  0  1 24.270324  9.993331  7.137882
33    0  1 28.553101  8.565496  5.710098
933   0  1 25.697956  8.565496  5.710098
943   0  1 25.697907 11.421190  5.710401
1932  0  1 27.125528  9.993470  4.282734
1933  0  1 27.125528  9.993336  7.137893
153   0  1  2.855261 14.276761  5.710369
1042  0  1  1.427671 12.848968  4.282808
1043  0  1  1.427652 12.848968  7.138034
1052  0  1  1.427621 15.704493  4.282706
1053  0  1  1.427613 15.704606  7.137882
53    0  1  0.000030 14.276746  5.710401
253   0  1  5.710480 14.276782  5.710333
1142  0  1  4.282912 12.848968  4.282765
1143  0  1  4.282886 12.848968  7.138007
1152  0  1  4.282799 15.704564  4.282652
1153  0  1  4.282801 15.704620  7.137860
1242  0  1  7.138154 12.848968  4.282739
1243  0  1  7.138136 12.848968  7.137989
1252  0  1  7.138007 15.704620  4.282654
1253  0  1  7.138004 15.704622  7.137857
353   0  1  8.565764 14.276778  5.710342
453   0  1 11.421202 14.276735  5.710370
1342  0  1  9.993487 12.848968  4.282741
1343  0  1  9.993486 12.848968  7.138007
1352  0  1  9.993401 15.704536  4.282708
1353  0  1  9.993411 15.704526  7.137954
553   0  1 14.276735 14.276735  5.710370
1442  0  1 12.848968 12.848968  4.282747
1443  0  1 12.848968 12.848968  7.138023
1452  0  1 12.848968 15.704450  4.282741
1453  0  1 12.848968 15.704451  7.138007
1542  0  1 15.704450 12.848968  4.282741
1543  0  1 15.704451 12.848968  7.138007
1552  0  1 15.704536 15.704536  4.282708
1553  0  1 15.704526 15.704526  7.137954
653   0  1 17.132172 14.276778  5.710342
753   0  1 19.987457 14.276782  5.710333
1642  0  1 18.559783 12.848968  4.282739
1643  0  1 18.559801 12.848968  7.137989
1652  0  1 18.559930 15.704620  4.282654
1653  0  1 18.559932 15.704622  7.137857
853   0  1 22.842675 14.276761  5.710369
1742  0  1 21.415024 12.848968  4.282765
1743  0  1 21.415050 12.848968  7.138007
1752  0  1 21.415138 15.704564  4.282652
1753  0  1 21.415136 15.704620  7.137860
1842  0  1 24.270266 12.848968  4.282808
1843  0  1 24.270284 12.848968  7.138034
1852  0  1 24.270316 15.704493  4.282706
1853  0  1 24.270324 15.704606  7.137882
953   0  1 25.697907 14.276746  5.710401
1942  0  1 27.125528 12.848968  4.282828
1943  0  1 27.125528 12.848968  7.138046
1952  0  1 27.125528 15.704467  4.282734
1953  0  1 27.125528 15.704601  7.137893
163   0  1  2.855099 17.132478  5.710060
173   0  1  2.854730 19.988526  5.709264
1062  0  1  1.427416 18.560339  4.282242
1063  0  1  1.427495 18.560354  7.137436
263   0  1  5.710169 17.132538  5.710022
273   0  1  5.709250 19.988686  5.709103
1162  0  1  4.282266 18.560519  4.282119
1163  0  1  4.282545 18.560368  7.137421
1262  0  1  7.137568 18.560368  4.282398
1263  0  1  7.137592 18.560345  7.137445
363   0  1  8.565544 17.132393  5.710199
373   0  1  8.565398 19.987768  5.710022
463   0  1 11.421158 17.132172  5.710342
473   0  1 11.421154 19.987457  5.710333
1362  0  1  9.993317 18.559930  4.282654
1363  0  1  9.993315 18.559932  7.137857
563   0  1 14.276778 17.132172  5.710342
573   0  1 14.276782 19.987457  5.710333
1462  0  1 12.848968 18.559783  4.282739
1463  0  1 12.848968 18.559801  7.137989
1562  0  1 15.704620 18.559930  4.282654
1563  0  1 15.704622 18.559932  7.137857
663   0  1 17.132393 17.132393  5.710199
673   0  1 17.132538 19.987768  5.710022
763   0  1 19.987768 17.132538  5.710022
773   0  1 19.988686 19.988686  5.709103
1662  0  1 18.560368 18.560368  4.282398
1663  0  1 18.560345 18.560345  7.137445
863   0  1 22.842838 17.132478  5.710060
873   0  1 22.843206 19.988526  5.709264
1762  0  1 21.415670 18.560519  4.282119
1763  0  1 21.415392 18.560368  7.137421
1862  0  1 24.270520 18.560340  4.282242
1863  0  1 24.270442 18.560354  7.137436
63    0  1 28.553101 17.132441  5.710098
73    0  1 28.552985 19.988492  5.709298
963   0  1 25.697956 17.132441  5.710098
973   0  1 25.698072 19.988492  5.709298
1962  0  1 27.125528 18.560285  4.282292
1963  0  1 27.125528 18.560345  7.137445
183   0  1  2.854368 22.843569  5.709288
1072  0  1  1.427013 21.417021  4.280769
1073  0  1  1.427416 21.415548  7.137450
1082  0  1  1.426851 24.271085  4.281645
1083  0  1  1.427537 24.270400  7.137983
283   0  1  5.709411 22.843206  5.709264
1172  0  1  4.280109 21.417828  4.279962
1173  0  1  4.282266 21.415670  7.137271
1182  0  1  4.280916 24.270924  4.280769
1183  0  1  4.282389 24.270520  7.137450
1272  0  1  7.137418 21.415670  4.282119
1273  0  1  7.137568 21.415392  7.137421
1282  0  1  7.137597 24.270520  4.282242
1283  0  1  7.137583 24.270442  7.137436
383   0  1  8.565459 22.842838  5.710060
483   0  1 11.421176 22.842675  5.710369
1372  0  1  9.993373 21.415138  4.282652
1373  0  1  9.993317 21.415136  7.137860
1382  0  1  9.993443 24.270316  4.282706
1383  0  1  9.993331 24.270324  7.137882
583   0  1 14.276761 22.842675  5.710369
1472  0  1 12.848968 21.415024  4.282765
1473  0  1 12.848968 21.415050  7.138007
1482  0  1 12.848968 24.270266  4.282808
1483  0  1 12.848968 24.270284  7.138034
1572  0  1 15.704564 21.415138  4.282652
1573  0  1 15.704620 21.415136  7.137860
1582  0  1 15.704493 24.270316  4.282706
1583  0  1 15.704606 24.270324  7.137882
683   0  1 17.132478 22.842838  5.710060
783   0  1 19.988526 22.843206  5.709264
1672  0  1 18.560519 21.415670  4.282119
1673  0  1 18.560368 21.415392  7.137421
1682  0  1 18.560340 24.270520  4.282242
1683  0  1 18.560354 24.270442  7.137436
883   0  1 22.843569 22.843569  5.709288
1772  0  1 21.417828 21.417828  4.279962
1773  0  1 21.415670 21.415670  7.137271
1782  0  1 21.417021 24.270924  4.280769
1783  0  1 21.415548 24.270520  7.137450
1872  0  1 24.270924 21.417021  4.280769
1873  0  1 24.270520 21.415548  7.137450
1882  0  1 24.271085 24.271085  4.281645
1883  0  1 24.270400 24.270400  7.137983
83    0  1 28.552925 22.843319  5.709626
983   0  1 25.698132 22.843319  5.709626
1972  0  1 27.125528 21.417007  4.280782
1973  0  1 27.125528 21.415498  7.137504
1982  0  1 27.125528 24.271030  4.281969
1983  0  1 27.125528 24.270351  7.138103
103   0  1  2.854618 28.552925  5.709626
193   0  1  2.854618 25.698132  5.709626
1092  0  1  1.426907 27.125528  4.281969
1093  0  1  1.427586 27.125528  7.138103
93    0  1  0.000141 25.697796  5.710758
203   0  1  5.709445 28.552985  5.709298
293   0  1  5.709445 25.698072  5.709298
1192  0  1  4.280929 27.125528  4.280782
1193  0  1  4.282439 27.125528  7.137504
1292  0  1  7.137651 27.125528  4.282292
1293  0  1  7.137592 27.125528  7.137445
303   0  1  8.565496 28.553101  5.710098
393   0  1  8.565496 25.697956  5.710098
493   0  1 11.421190 25.697907  5.710401
1392  0  1  9.993470 27.125528  4.282734
1393  0  1  9.993336 27.125528  7.137893
593   0  1 14.276746 25.697907  5.710401
1492  0  1 12.848968 27.125528  4.282828
1493  0  1 12.848968 27.125528  7.138046
1592  0  1 15.704467 27.125528  4.282734
1593  0  1 15.704601 27.125528  7.137893
603   0  1 17.132441 28.553101  5.710098
703   0  1 19.988492 28.552985  5.709298
693   0  1 17.132441 25.697956  5.710098
793   0  1 19.988492 25.698072  5.709298
1692  0  1 18.560285 27.125528  4.282292
1693  0  1 18.560345 27.125528  7.137445
803   0  1 22.843319 28.552925  5.709626
893   0  1 22.843319 25.698132  5.709626
1792  0  1 21.417007 27.125528  4.280782
1793  0  1 21.415498 27.125528  7.137504
1892  0  1 24.271030 27.125528  4.281969
1893  0  1 24.270351 27.125528  7.138103
993   0  1 25.697796 25.697796  5.710758
1992  0  1 27.125528 27.125528  4.285306
1993  0  1 27.125528 27.125528  7.138507
114   0  1  2.855127  2.855127  8.565523
115   0  1  2.855297  2.855297 11.421092
1004  0  1  1.427665  1.427665  9.993459
15    0  1  0.000044  2.855335 11.421127
105   0  1  2.855335  0.000044 11.421127
4     0  1  0.000044  0.000044  8.565925
5     0  1  0.000060  0.000060 11.421187
214   0  1  5.710207  2.855099  8.565312
215   0  1  5.710516  2.855261 11.421029
1104  0  1  4.282853  1.427621  9.993297
1204  0  1  7.138029  1.427613  9.993184
205   0  1  5.710548  0.000030 11.421044
314   0  1  8.565540  2.855175  8.565393
315   0  1  8.565775  2.855256 11.421011
414   0  1 11.421158  2.855256  8.565628
415   0  1 11.421200  2.855266 11.421054
1304  0  1  9.993401  1.427633  9.993254
304   0  1  8.565545  0.000001  8.565398
404   0  1 11.421159  0.000025  8.565639
405   0  1 11.421201  0.000027 11.421054
305   0  1  8.565786  0.000025 11.421012
514   0  1 14.276779  2.855256  8.565628
515   0  1 14.276736  2.855266 11.421054
1404  0  1 12.848968  1.427647  9.993345
1504  0  1 15.704535  1.427633  9.993254
504   0  1 14.276778  0.000025  8.565639
505   0  1 14.276736  0.000027 11.421054
614   0  1 17.132396  2.855175  8.565393
615   0  1 17.132161  2.855256 11.421011
714   0  1 19.987730  2.855099  8.565312
715   0  1 19.987421  2.855261 11.421029
1604  0  1 18.559908  1.427613  9.993184
604   0  1 17.132391  0.000001  8.565398
605   0  1 17.132151  0.000025 11.421012
705   0  1 19.987389  0.000030 11.421044
814   0  1 22.842809  2.855127  8.565523
815   0  1 22.842640  2.855297 11.421092
1704  0  1 21.415084  1.427621  9.993297
1804  0  1 24.270271  1.427665  9.993459
805   0  1 22.842602  0.000044 11.421127
14    0  1 28.553113  2.855201  8.565645
914   0  1 25.697944  2.855201  8.565645
915   0  1 25.697893  2.855335 11.421127
1904  0  1 27.125528  1.427691  9.993510
904   0  1 25.697893  0.000044  8.565925
905   0  1 25.697877  0.000060 11.421187
124   0  1  2.855099  5.710207  8.565312
125   0  1  2.855261  5.710516 11.421029
1014  0  1  1.427621  4.282853  9.993297
1024  0  1  1.427613  7.138029  9.993184
25    0  1  0.000030  5.710548 11.421044
224   0  1  5.710169  5.710169  8.565251
225   0  1  5.710480  5.710480 11.421007
1114  0  1  4.282799  4.282799  9.993226
1124  0  1  4.282801  7.138007  9.993170
1214  0  1  7.138007  4.282801  9.993170
1224  0  1  7.138004  7.138004  9.993168
324   0  1  8.565544  5.710346  8.565397
325   0  1  8.565764  5.710489 11.421011
424   0  1 11.421158  5.710489  8.565618
425   0  1 11.421202  5.710517 11.421055
1314  0  1  9.993401  4.282855  9.993254
1324  0  1  9.993411  7.138101  9.993264
524   0  1 14.276778  5.710489  8.565618
525   0  1 14.276735  5.710517 11.421055
1414  0  1 12.848968  4.282888  9.993340
1424  0  1 12.848968  7.138154  9.993339
1514  0  1 15.704536  4.282855  9.993254
1524  0  1 15.704526  7.138101  9.993264
624   0  1 17.132393  5.710346  8.565397
625   0  1 17.132172  5.710489 11.421011
724   0  1 19.987768  5.710169  8.565251
725   0  1 19.987457  5.710480 11.421007
1614  0  1 18.559930  4.282801  9.993170
1624  0  1 18.559932  7.138004  9.993168
824   0  1 22.842838  5.710207  8.565312
825   0  1 22.842675  5.710516 11.421029
1714  0  1 21.415138  4.282799  9.993226
1724  0  1 21.415136  7.138007  9.993170
1814  0  1 24.270316  4.282853  9.993297
1824  0  1 24.270324  7.138029  9.993184
24    0  1 28.553101  5.710245  8.565349
924   0  1 25.697956  5.710245  8.565349
925   0  1 25.697907  5.710548 11.421044
1914  0  1 27.125528  4.282881  9.993323
1924  0  1 27.125528  7.138040  9.993189
134   0  1  2.855175  8.565540  8.565393
135   0  1  2.855256  8.565775 11.421011
144   0  1  2.855256 11.421158  8.565628
145   0  1  2.855266 11.421200 11.421054
1034  0  1  1.427633  9.993401  9.993254
34    0  1  0.000001  8.565545  8.565398
44    0  1  0.000025 11.421159  8.565639
45    0  1  0.000027 11.421201 11.421054
35    0  1  0.000025  8.565786 11.421012
234   0  1  5.710346  8.565544  8.565397
235   0  1  5.710489  8.565764 11.421011
244   0  1  5.710489 11.421158  8.565618
245   0  1  5.710517 11.421202 11.421055
1134  0  1  4.282855  9.993401  9.993254
1234  0  1  7.138101  9.993411  9.993264
334   0  1  8.565598  8.565598  8.565451
335   0  1  8.565772  8.565772 11.421023
344   0  1  8.565772 11.421169  8.565625
345   0  1  8.565818 11.421209 11.421062
434   0  1 11.421169  8.565772  8.565625
435   0  1 11.421209  8.565818 11.421062
444   0  1 11.421209 11.421209  8.565671
445   0  1 11.421222 11.421222 11.421075
1334  0  1  9.993448  9.993448  9.993301
534   0  1 14.276767  8.565772  8.565625
535   0  1 14.276728  8.565818 11.421062
544   0  1 14.276728 11.421209  8.565671
545   0  1 14.276715 11.421222 11.421075
1434  0  1 12.848968  9.993498  9.993351
1534  0  1 15.704489  9.993448  9.993301
634   0  1 17.132339  8.565598  8.565451
635   0  1 17.132164  8.565772 11.421023
644   0  1 17.132164 11.421169  8.565625
645   0  1 17.132119 11.421209 11.421062
734   0  1 19.987591  8.565544  8.565397
735   0  1 19.987448  8.565764 11.421011
744   0  1 19.987448 11.421158  8.565618
745   0  1 19.987419 11.421202 11.421055
1634  0  1 18.559835  9.993411  9.993264
834   0  1 22.842761  8.565540  8.565393
835   0  1 22.842681  8.565775 11.421011
844   0  1 22.842681 11.421158  8.565628
845   0  1 22.842671 11.421200 11.421054
1734  0  1 21.415082  9.993401  9.993254
1834  0  1 24.270304  9.993401  9.993254
934   0  1 25.697936  8.565545  8.565398
935   0  1 25.697911  8.565786 11.421012
944   0  1 25.697911 11.421159  8.565639
945   0  1 25.697910 11.421201 11.421054
1934  0  1 27.125528  9.993402  9.993255
154   0  1  2.855256 14.276779  8.565628
155   0  1  2.855266 14.276736 11.421054
1044  0  1  1.427647 12.848968  9.993345
1054  0  1  1.427633 15.704535  9.993254
54    0  1  0.000025 14.276778  8.565639
55    0  1  0.000027 14.276736 11.421054
254   0  1  5.710489 14.276778  8.565618
255   0  1  5.710517 14.276735 11.421055
1144  0  1  4.282888 12.848968  9.993340
1154  0  1  4.282855 15.704536  9.993254
1244  0  1  7.138154 12.848968  9.993339
1254  0  1  7.138101 15.704526  9.993264
354   0  1  8.565772 14.276767  8.565625
355   0  1  8.565818 14.276728 11.421062
454   0  1 11.421209 14.276728  8.565671
455   0  1 11.421222 14.276715 11.421075
1344  0  1  9.993498 12.848968  9.993351
1354  0  1  9.993448 15.704489  9.993301
554   0  1 14.276728 14.276728  8.565671
555   0  1 14.276715 14.276715 11.421075
1444  0  1 12.848968 12.848968  9.993372
1454  0  1 12.848968 15.704438  9.993351
1544  0  1 15.704438 12.848968  9.993351
1554  0  1 15.704489 15.704489  9.993301
654   0  1 17.132164 14.276767  8.565625
655   0  1 17.132119 14.276728 11.421062
754   0  1 19.987448 14.276778  8.565618
755   0  1 19.987419 14.276735 11.421055
1644  0  1 18.559782 12.848968  9.993339
1654  0  1 18.559835 15.704526  9.993264
854   0  1 22.842681 14.276779  8.565628
855   0  1 22.842671 14.276736 11.421054
1744  0  1 21.415048 12.848968  9.993340
1754  0  1 21.415082 15.704536  9.993254
1844  0  1 24.270290 12.848968  9.993345
1854  0  1 24.270304 15.704535  9.993254
954   0  1 25.697911 14.276778  8.565639
955   0  1 25.697910 14.276736 11.421054
1944  0  1 27.125528 12.848968  9.993347
1954  0  1 27.125528 15.704535  9.993255
164   0  1  2.855175 17.132396  8.565393
165   0  1  2.855256 17.132161 11.421011
174   0  1  2.855099 19.987730  8.565312
175   0  1  2.855261 19.987421 11.421029
1064  0  1  1.427613 18.559908  9.993184
64    0  1  0.000001 17.132391  8.565398
65    0  1  0.000025 17.132151 11.421012
75    0  1  0.000030 19.987389 11.421044
264   0  1  5.710346 17.132393  8.565397
265   0  1  5.710489 17.132172 11.421011
274   0  1  5.710169 19.987768  8.565251
275   0  1  5.710480 19.987457 11.421007
1164  0  1  4.282801 18.559930  9.993170
1264  0  1  7.138004 18.559932  9.993168
364   0  1  8.565598 17.132339  8.565451
365   0  1  8.565772 17.132164 11.421023
374   0  1  8.565544 19.987591  8.565397
375   0  1  8.565764 19.987448 11.421011
464   0  1 11.421169 17.132164  8.565625
465   0  1 11.421209 17.132119 11.421062
474   0  1 11.421158 19.987448  8.565618
475   0  1 11.421202 19.987419 11.421055
1364  0  1  9.993411 18.559835  9.993264
564   0  1 14.276767 17.132164  8.565625
565   0  1 14.276728 17.132119 11.421062
574   0  1 14.276778 19.987448  8.565618
575   0  1 14.276735 19.987419 11.421055
1464  0  1 12.848968 18.559782  9.993339
1564  0  1 15.704526 18.559835  9.993264
664   0  1 17.132339 17.132339  8.565451
665   0  1 17.132164 17.132164 11.421023
674   0  1 17.132393 19.987591  8.565397
675   0  1 17.132172 19.987448 11.421011
764   0  1 19.987591 17.132393  8.565397
765   0  1 19.987448 17.132172 11.421011
774   0  1 19.987768 19.987768  8.565251
775   0  1 19.987457 19.987457 11.421007
1664  0  1 18.559932 18.559932  9.993168
864   0  1 22.842761 17.132396  8.565393
865   0  1 22.842681 17.132161 11.421011
874   0  1 22.842838 19.987730  8.565312