LAMMPS (7 Feb 2024 - Update 1)
OMP_NUM_THREADS environment is not set. Defaulting to 1 thread. (src/comm.cpp:98)
  using 1 OpenMP thread(s) per MPI task
units         metal
dimension     3
atom_style    molecular
atom_modify   map array
boundary      p p p
pair_style    eam/fs
read_data     Runner_0/tmp0.dat
Reading data file ...
  triclinic box = (0 0 0) to (28.55312 28.55312 28.55312) with tilt (0 0 0)
  1 by 1 by 1 MPI processor grid
  reading atoms ...
  1951 atoms
Finding 1-2 1-3 1-4 neighbors ...
  special bond factors lj:    0        0        0       
  special bond factors coul:  0        0        0       
     0 = max # of 1-2 neighbors
     0 = max # of 1-3 neighbors
     0 = max # of 1-4 neighbors
     1 = max # of special neighbors
  special bonds CPU = 0.000 seconds
  read_data CPU = 0.005 seconds
pair_coeff    *  *  /Users/taoliang/PycharmProjects/SEAKMC2_py/examples/test/Fe-P.eam.fs  Fe P
neighbor 2.0 bin
neigh_modify every 1 delay 0 check yes
timestep    0.002000
compute     pe  all pe
compute     ke  all ke
group        gactive id <= 167
167 atoms in group gactive
group        gfixed subtract all gactive
1784 atoms in group gfixed
fix          freeze gfixed setforce 0.0 0.0 0.0
run    0
WARNING: No fixes with time integration, atoms won't move (src/verlet.cpp:60)
Neighbor list info ...
  update: every = 1 steps, delay = 0 steps, check = yes
  max neighbors/atom: 2000, page size: 100000
  master list distance cutoff = 7.3
  ghost atom cutoff = 7.3
  binsize = 3.65, bins = 8 8 8
  1 neighbor lists, perpetual/occasional/extra = 1 0 0
  (1) pair eam/fs, perpetual
      attributes: half, newton on
      pair build: half/bin/newton/tri
      stencil: half/bin/3d/tri
      bin: standard
Per MPI rank memory allocation (min/avg/max) = 6.765 | 6.765 | 6.765 Mbytes
   Step          Temp          E_pair         E_mol          TotEng         Press     
         0   0             -7781.8596      0             -7781.8596     -1727.9581    
Loop time of 9.83e-07 on 1 procs for 0 steps with 1951 atoms

203.5% CPU use with 1 MPI tasks x 1 OpenMP threads

MPI task timing breakdown:
Section |  min time  |  avg time  |  max time  |%varavg| %total
---------------------------------------------------------------
Pair    | 0          | 0          | 0          |   0.0 |  0.00
Bond    | 0          | 0          | 0          |   0.0 |  0.00
Neigh   | 0          | 0          | 0          |   0.0 |  0.00
Comm    | 0          | 0          | 0          |   0.0 |  0.00
Output  | 0          | 0          | 0          |   0.0 |  0.00
Modify  | 0          | 0          | 0          |   0.0 |  0.00
Other   |            | 9.83e-07   |            |       |100.00

Nlocal:           1951 ave        1951 max        1951 min
Histogram: 1 0 0 0 0 0 0 0 0 0
Nghost:           4740 ave        4740 max        4740 min
Histogram: 1 0 0 0 0 0 0 0 0 0
Neighs:         130155 ave      130155 max      130155 min
Histogram: 1 0 0 0 0 0 0 0 0 0

Total # of neighbors = 130155
Ave neighs/atom = 66.711943
Ave special neighs/atom = 0
Neighbor list builds = 0
Dangerous builds = 0
Total wall time: 0:00:00
