Generated by pymatgen.io.lammps.data.LammpsData

161  atoms

  2  atom types

0.000000 28.553120  xlo xhi
0.000000 28.553120  ylo yhi
0.000000 28.553120  zlo zhi
0.000000 0.000000 0.000000  xy xz yz

Masses

1  55.847000
2  30.973762

Atoms

1    0  1 -1.048155 -1.048155  1.048155
2    0  1  1.048155  1.048155 -1.048155
3    0  1 -1.706892  1.006709 -1.006709
4    0  1  1.006709 -1.706892 -1.006709
5    0  1  1.006709  1.006709  1.706892
6    0  1 -0.332601 -0.332601 -2.565532
7    0  1 -0.332601  2.565532  0.332601
8    0  1  2.565532 -0.332601  0.332601
9    0  1 -1.753338 -1.753338 -1.158382
10   0  1 -1.753338  1.158382  1.753338
11   0  1  1.158382 -1.753338  1.753338
12   0  1 -3.254693 -0.342973  0.342973
13   0  1 -0.342973 -3.254693  0.342973
14   0  1 -0.342973 -0.342973  3.254693
15   0  1 -0.342999  2.504461 -2.504461
16   0  1  2.504461 -0.342999 -2.504461
17   0  1  2.504461  2.504461  0.342999
18   0  1 -3.193789 -0.323611 -2.519911
19   0  1 -3.193789  2.519911  0.323611
20   0  1 -0.323611 -3.193789 -2.519911
21   0  1 -0.323611  2.519911  3.193789
22   0  1  2.519911 -3.193789  0.323611
23   0  1  2.519911 -0.323611  3.193789
24   0  1  2.501886  2.501886 -2.501886
25   0  1 -3.103020 -3.103020  0.389419
26   0  1 -3.103020 -0.389419  3.103020
27   0  1 -0.389419 -3.103020  3.103020
28   0  1  1.094824  1.094824 -3.946832
29   0  1  1.094824  3.946832 -1.094824
30   0  1  3.946832  1.094824 -1.094824
31   0  1 -1.764683  1.092421 -3.945506
32   0  1 -1.764683  3.945506 -1.092421
33   0  1  1.092421 -1.764683 -3.945506
34   0  1  1.092421  3.945506  1.764683
35   0  1  3.945506 -1.764683 -1.092421
36   0  1  3.945506  1.092421  1.764683
37   0  1 -1.766960 -1.766960 -3.956800
38   0  1 -1.766960  3.956800  1.766960
39   0  1  3.956800 -1.766960  1.766960
40   0  1 -3.168104  2.495741 -2.495741
41   0  1  2.495741 -3.168104 -2.495741
42   0  1  2.495741  2.495741  3.168104
43   0  1 -4.621145  1.094055 -1.094055
44   0  1  1.094055 -4.621145 -1.094055
45   0  1  1.094055  1.094055  4.621145
46   0  1 -4.616222 -1.772700 -1.097478
47   0  1 -4.616222  1.097478  1.772700
48   0  1 -1.772700 -4.616222 -1.097478
49   0  1 -1.772700  1.097478  4.616222
50   0  1  1.097478 -4.616222  1.772700
51   0  1  1.097478 -1.772700  4.616222
52   0  1 -3.144466 -3.144466  3.144466
53   0  1 -3.190366 -3.190366 -2.524835
54   0  1 -3.190366  2.524835  3.190366
55   0  1  2.524835 -3.190366  3.190366
56   0  1 -0.334766 -0.334766 -5.378841
57   0  1 -0.334766  5.378841  0.334766
58   0  1  5.378841 -0.334766  0.334766
59   0  1 -4.661843 -1.763710  1.763710
60   0  1 -1.763710 -4.661843  1.763710
61   0  1 -1.763710 -1.763710  4.661843
62   0  1  1.088889  3.940451 -3.940451
63   0  1  3.940451  1.088889 -3.940451
64   0  1  3.940451  3.940451 -1.088889
65   0  1 -1.762395  3.941779 -3.941779
66   0  1  3.941779 -1.762395 -3.941779
67   0  1  3.941779  3.941779  1.762395
68   0  1 -0.335897  2.518079 -5.373183
69   0  1 -0.335897  5.373183 -2.518079
70   0  1  2.518079 -0.335897 -5.373183
71   0  1  2.518079  5.373183  0.335897
72   0  1  5.373183 -0.335897 -2.518079
73   0  1  5.373183  2.518079  0.335897
74   0  1 -6.053111 -0.329351  0.329351
75   0  1 -0.329351 -6.053111  0.329351
76   0  1 -0.329351 -0.329351  6.053111
77   0  1 -4.617920  1.096234 -3.947662
78   0  1 -4.617920  3.947662 -1.096234
79   0  1  1.096234 -4.617920 -3.947662
80   0  1  1.096234  3.947662  4.617920
81   0  1  3.947662 -4.617920 -1.096234
82   0  1  3.947662  1.096234  4.617920
83   0  1 -4.616912 -1.760852 -3.948952
84   0  1 -4.616912  3.948952  1.760852
85   0  1 -1.760852 -4.616912 -3.948952
86   0  1 -1.760852  3.948952  4.616912
87   0  1  3.948952 -4.616912  1.760852
88   0  1  3.948952 -1.760852  4.616912
89   0  1 -3.190933 -0.333369 -5.376968
90   0  1 -3.190933  5.376968  0.333369
91   0  1 -0.333369 -3.190933 -5.376968
92   0  1 -0.333369  5.376968  3.190933
93   0  1  5.376968 -3.190933  0.333369
94   0  1  5.376968 -0.333369  3.190933
95   0  1  2.518981  2.518981 -5.373190
96   0  1  2.518981  5.373190 -2.518981
97   0  1  5.373190  2.518981 -2.518981
98   0  1 -6.045263 -0.335459 -2.520602
99   0  1 -6.045263  2.520602  0.335459
100  0  1 -0.335459 -6.045263 -2.520602
101  0  1 -0.335459  2.520602  6.045263
102  0  1  2.520602 -6.045263  0.335459
103  0  1  2.520602 -0.335459  6.045263
104  0  1 -4.592052 -4.592052 -1.071793
105  0  1 -4.592052  1.071793  4.592052
106  0  1  1.071793 -4.592052  4.592052
107  0  1 -4.600772 -4.600772  1.753312
108  0  1 -4.600772 -1.753312  4.600772
109  0  1 -1.753312 -4.600772  4.600772
110  0  1  3.939759  3.939759 -3.939759
111  0  1 -3.188443  2.518963 -5.373794
112  0  1 -3.188443  5.373794 -2.518963
113  0  1  2.518963 -3.188443 -5.373794
114  0  1  2.518963  5.373794  3.188443
115  0  1  5.373794 -3.188443 -2.518963
116  0  1  5.373794  2.518963  3.188443
117  0  1 -6.041817 -3.188732  0.331628
118  0  1 -6.041817 -0.331628  3.188732
119  0  1 -3.188732 -6.041817  0.331628
120  0  1 -3.188732 -0.331628  6.041817
121  0  1 -0.331628 -6.041817  3.188732
122  0  1 -0.331628 -3.188732  6.041817
123  0  1 -6.045062  2.520035 -2.520035
124  0  1  2.520035 -6.045062 -2.520035
125  0  1  2.520035  2.520035  6.045062
126  0  1  1.092841  1.092841 -6.803299
127  0  1  1.092841  6.803299 -1.092841
128  0  1  6.803299  1.092841 -1.092841
129  0  1 -4.608764  3.939136 -3.939136
130  0  1  3.939136 -4.608764 -3.939136
131  0  1  3.939136  3.939136  4.608764
132  0  1 -3.191672 -3.191672 -5.379331
133  0  1 -3.191672  5.379331  3.191672
134  0  1  5.379331 -3.191672  3.191672
135  0  1 -1.762562  1.092844 -6.804019
136  0  1 -1.762562  6.804019 -1.092844
137  0  1  1.092844 -1.762562 -6.804019
138  0  1  1.092844  6.804019  1.762562
139  0  1  6.804019 -1.762562 -1.092844
140  0  1  6.804019  1.092844  1.762562
141  0  1 -6.043973 -3.192545 -2.521609
142  0  1 -6.043973  2.521609  3.192545
143  0  1 -3.192545 -6.043973 -2.521609
144  0  1 -3.192545  2.521609  6.043973
145  0  1  2.521609 -6.043973  3.192545
146  0  1  2.521609 -3.192545  6.043973
147  0  1 -1.762801 -1.762801 -6.804945
148  0  1 -1.762801  6.804945  1.762801
149  0  1  6.804945 -1.762801  1.762801
150  0  1 -4.616346 -4.616346 -3.948751
151  0  1 -4.616346  3.948751  4.616346
152  0  1  3.948751 -4.616346  4.616346
153  0  1 -6.043143 -3.191135  3.191135
154  0  1 -3.191135 -6.043143  3.191135
155  0  1 -3.191135 -3.191135  6.043143
156  0  1 -0.335185  5.372102 -5.372102
157  0  1  5.372102 -0.335185 -5.372102
158  0  1  5.372102  5.372102  0.335185
159  0  1 -7.475642  1.095362 -1.095362
160  0  1  1.095362 -7.475642 -1.095362
161  0  1  1.095362  1.095362  7.475642

